
                                 *****************
                                 * O   R   C   A *
                                 *****************

                                            #,                                       
                                            ###                                      
                                            ####                                     
                                            #####                                    
                                            ######                                   
                                           ########,                                 
                                     ,,################,,,,,                         
                               ,,#################################,,                 
                          ,,##########################################,,             
                       ,#########################################, ''#####,          
                    ,#############################################,,   '####,        
                  ,##################################################,,,,####,       
                ,###########''''           ''''###############################       
              ,#####''   ,,,,##########,,,,          '''####'''          '####       
            ,##' ,,,,###########################,,,                        '##       
           ' ,,###''''                  '''############,,,                           
         ,,##''                                '''############,,,,        ,,,,,,###''
      ,#''                                            '''#######################'''  
     '                                                          ''''####''''         
             ,#######,   #######,   ,#######,      ##                                
            ,#'     '#,  ##    ##  ,#'     '#,    #''#        ######   ,####,        
            ##       ##  ##   ,#'  ##            #'  '#       #        #'  '#        
            ##       ##  #######   ##           ,######,      #####,   #    #        
            '#,     ,#'  ##    ##  '#,     ,#' ,#      #,         ##   #,  ,#        
             '#######'   ##     ##  '#######'  #'      '#     #####' # '####'        



                  #######################################################
                  #                        -***-                        #
                  #          Department of theory and spectroscopy      #
                  #    Directorship and core code : Frank Neese         #
                  #        Max Planck Institute fuer Kohlenforschung    #
                  #                Kaiser Wilhelm Platz 1               #
                  #                 D-45470 Muelheim/Ruhr               #
                  #                      Germany                        #
                  #                                                     #
                  #                  All rights reserved                #
                  #                        -***-                        #
                  #######################################################


                         Program Version 5.0.3 -  RELEASE  -


 With contributions from (in alphabetic order):
   Daniel Aravena         : Magnetic Suceptibility
   Michael Atanasov       : Ab Initio Ligand Field Theory (pilot matlab implementation)
   Alexander A. Auer      : GIAO ZORA, VPT2 properties, NMR spectrum
   Ute Becker             : Parallelization
   Giovanni Bistoni       : ED, misc. LED, open-shell LED, HFLD
   Martin Brehm           : Molecular dynamics
   Dmytro Bykov           : SCF Hessian
   Vijay G. Chilkuri      : MRCI spin determinant printing, contributions to CSF-ICE
   Dipayan Datta          : RHF DLPNO-CCSD density
   Achintya Kumar Dutta   : EOM-CC, STEOM-CC
   Dmitry Ganyushin       : Spin-Orbit,Spin-Spin,Magnetic field MRCI
   Miquel Garcia          : C-PCM and meta-GGA Hessian, CC/C-PCM, Gaussian charge scheme
   Yang Guo               : DLPNO-NEVPT2, F12-NEVPT2, CIM, IAO-localization
   Andreas Hansen         : Spin unrestricted coupled pair/coupled cluster methods
   Benjamin Helmich-Paris : MC-RPA, TRAH-SCF, COSX integrals
   Lee Huntington         : MR-EOM, pCC
   Robert Izsak           : Overlap fitted RIJCOSX, COSX-SCS-MP3, EOM
   Marcus Kettner         : VPT2
   Christian Kollmar      : KDIIS, OOCD, Brueckner-CCSD(T), CCSD density, CASPT2, CASPT2-K
   Simone Kossmann        : Meta GGA functionals, TD-DFT gradient, OOMP2, MP2 Hessian
   Martin Krupicka        : Initial AUTO-CI
   Lucas Lang             : DCDCAS
   Marvin Lechner         : AUTO-CI (C++ implementation), FIC-MRCC
   Dagmar Lenk            : GEPOL surface, SMD
   Dimitrios Liakos       : Extrapolation schemes; Compound Job, initial MDCI parallelization
   Dimitrios Manganas     : Further ROCIS development; embedding schemes
   Dimitrios Pantazis     : SARC Basis sets
   Anastasios Papadopoulos: AUTO-CI, single reference methods and gradients
   Taras Petrenko         : DFT Hessian,TD-DFT gradient, ASA, ECA, R-Raman, ABS, FL, XAS/XES, NRVS
   Peter Pinski           : DLPNO-MP2, DLPNO-MP2 Gradient
   Christoph Reimann      : Effective Core Potentials
   Marius Retegan         : Local ZFS, SOC
   Christoph Riplinger    : Optimizer, TS searches, QM/MM, DLPNO-CCSD(T), (RO)-DLPNO pert. Triples
   Tobias Risthaus        : Range-separated hybrids, TD-DFT gradient, RPA, STAB
   Michael Roemelt        : Original ROCIS implementation
   Masaaki Saitow         : Open-shell DLPNO-CCSD energy and density
   Barbara Sandhoefer     : DKH picture change effects
   Avijit Sen             : IP-ROCIS
   Kantharuban Sivalingam : CASSCF convergence, NEVPT2, FIC-MRCI
   Bernardo de Souza      : ESD, SOC TD-DFT
   Georgi Stoychev        : AutoAux, RI-MP2 NMR, DLPNO-MP2 response
   Willem Van den Heuvel  : Paramagnetic NMR
   Boris Wezisla          : Elementary symmetry handling
   Frank Wennmohs         : Technical directorship


 We gratefully acknowledge several colleagues who have allowed us to
 interface, adapt or use parts of their codes:
   Stefan Grimme, W. Hujo, H. Kruse, P. Pracht,  : VdW corrections, initial TS optimization,
                  C. Bannwarth, S. Ehlert          DFT functionals, gCP, sTDA/sTD-DF
   Ed Valeev, F. Pavosevic, A. Kumar             : LibInt (2-el integral package), F12 methods
   Garnet Chan, S. Sharma, J. Yang, R. Olivares  : DMRG
   Ulf Ekstrom                                   : XCFun DFT Library
   Mihaly Kallay                                 : mrcc  (arbitrary order and MRCC methods)
   Jiri Pittner, Ondrej Demel                    : Mk-CCSD
   Frank Weinhold                                : gennbo (NPA and NBO analysis)
   Christopher J. Cramer and Donald G. Truhlar   : smd solvation model
   Lars Goerigk                                  : TD-DFT with DH, B97 family of functionals
   V. Asgeirsson, H. Jonsson                     : NEB implementation
   FAccTs GmbH                                   : IRC, NEB, NEB-TS, DLPNO-Multilevel, CI-OPT
                                                   MM, QMMM, 2- and 3-layer-ONIOM, Crystal-QMMM,
                                                   LR-CPCM, SF, NACMEs, symmetry and pop. for TD-DFT,
                                                   nearIR, NL-DFT gradient (VV10), updates on ESD,
                                                   ML-optimized integration grids
   S Lehtola, MJT Oliveira, MAL Marques          : LibXC Library
   Liviu Ungur et al                             : ANISO software


 Your calculation uses the libint2 library for the computation of 2-el integrals
 For citations please refer to: http://libint.valeyev.net

 Your ORCA version has been built with support for libXC version: 5.1.0
 For citations please refer to: https://tddft.org/programs/libxc/

 This ORCA versions uses:
   CBLAS   interface :  Fast vector & matrix operations
   LAPACKE interface :  Fast linear algebra routines
   SCALAPACK package :  Parallel linear algebra routines
   Shared memory     :  Shared parallel matrices


================================================================================

----- Orbital basis set information -----
Your calculation utilizes the basis: STO-3G
   H-Ne       : W. J. Hehre, R. F. Stewart and J. A. Pople, J. Chem. Phys. 2657 (1969).
   Na-Ar      : W. J. Hehre, R. Ditchfield, R. F. Stewart and J. A. Pople, J. Chem. Phys. 2769 (1970).
   K,Ca,Ga-Kr : W. J. Pietro, B. A. Levy, W. J. Hehre and R. F. Stewart, J. Am. Chem. Soc. 19, 2225 (1980).
   Sc-Zn,Y-Cd : W. J. Pietro and W. J. Hehre, J. Comp. Chem. 4, 241 (1983).

================================================================================
                                        WARNINGS
                       Please study these warnings very carefully!
================================================================================


INFO   : the flag for use of the SHARK integral package has been found!

================================================================================
                                       INPUT FILE
================================================================================
NAME = methane.inp
|  1> ! HF STO-3G
|  2> %shark
|  3> Printlevel 2
|  4> end
|  5> * xyz 0 1
|  6>  C 0.0000 0.0000 0.0000
|  7>  H 0.0000 0.0000 1.0890
|  8>  H 1.0267 0.0000 -0.3630
|  9>  H -0.5134 -0.8892 -0.3630
| 10>  H -0.5134 0.8892 -0.3630
| 11> *
| 12> 
| 13>                          ****END OF INPUT****
================================================================================

                       ****************************
                       * Single Point Calculation *
                       ****************************

---------------------------------
CARTESIAN COORDINATES (ANGSTROEM)
---------------------------------
  C      0.000000    0.000000    0.000000
  H      0.000000    0.000000    1.089000
  H      1.026700    0.000000   -0.363000
  H     -0.513400   -0.889200   -0.363000
  H     -0.513400    0.889200   -0.363000

----------------------------
CARTESIAN COORDINATES (A.U.)
----------------------------
  NO LB      ZA    FRAG     MASS         X           Y           Z
   0 C     6.0000    0    12.011    0.000000    0.000000    0.000000
   1 H     1.0000    0     1.008    0.000000    0.000000    2.057912
   2 H     1.0000    0     1.008    1.940182    0.000000   -0.685971
   3 H     1.0000    0     1.008   -0.970185   -1.680344   -0.685971
   4 H     1.0000    0     1.008   -0.970185    1.680344   -0.685971

--------------------------------
INTERNAL COORDINATES (ANGSTROEM)
--------------------------------
 C      0   0   0     0.000000000000     0.00000000     0.00000000
 H      1   0   0     1.089000000000     0.00000000     0.00000000
 H      1   2   0     1.088982043011   109.47155467     0.00000000
 H      1   2   3     1.089047841006   109.47033076   120.00097331
 H      1   2   3     1.089047841006   109.47033076   239.99902669

---------------------------
INTERNAL COORDINATES (A.U.)
---------------------------
 C      0   0   0     0.000000000000     0.00000000     0.00000000
 H      1   0   0     2.057911759840     0.00000000     0.00000000
 H      1   2   0     2.057877826048   109.47155467     0.00000000
 H      1   2   3     2.058002166240   109.47033076   120.00097331
 H      1   2   3     2.058002166240   109.47033076   239.99902669

---------------------
BASIS SET INFORMATION
---------------------
There are 2 groups of distinct atoms

 Group   1 Type C   : 6s3p contracted to 2s1p pattern {33/3}
 Group   2 Type H   : 3s contracted to 1s pattern {3}

Atom   0C    basis set group =>   1
Atom   1H    basis set group =>   2
Atom   2H    basis set group =>   2
Atom   3H    basis set group =>   2
Atom   4H    basis set group =>   2
------------------------------------------------------------------------------
                           ORCA GTO INTEGRAL CALCULATION
------------------------------------------------------------------------------
------------------------------------------------------------------------------
                   ___                                                        
                  /   \      - P O W E R E D   B Y -                         
                 /     \                                                     
                 |  |  |   _    _      __       _____    __    __             
                 |  |  |  | |  | |    /  \     |  _  \  |  |  /  |          
                  \  \/   | |  | |   /    \    | | | |  |  | /  /          
                 / \  \   | |__| |  /  /\  \   | |_| |  |  |/  /          
                |  |  |   |  __  | /  /__\  \  |    /   |      \           
                |  |  |   | |  | | |   __   |  |    \   |  |\   \          
                \     /   | |  | | |  |  |  |  | |\  \  |  | \   \       
                 \___/    |_|  |_| |__|  |__|  |_| \__\ |__|  \__/        
                                                                              
                      - O R C A' S   B I G   F R I E N D -                    
                                      &                                       
                       - I N T E G R A L  F E E D E R -                       
                                                                              
 v1 FN, 2020, v2 2021                                                         
------------------------------------------------------------------------------


Reading SHARK input file methane.SHARKINP.tmp ... SHARK General Contraction Test:  Segmented basis detected
   -> Pre-screening matrix *NOT* found on disk - recalculating with NShells=7
   -> Leaving CheckPreScreeningMatrix
ok
----------------------
SHARK INTEGRAL PACKAGE
----------------------

Number of atoms                             ...      5
Number of basis functions                   ...      9
Number of shells                            ...      7
Maximum angular momentum                    ...      1
Integral batch strategy                     ... SHARK/LIBINT Hybrid
RI-J (if used) integral strategy            ... SPLIT-RIJ (Revised 2003 algorithm where possible)
Printlevel                                  ...      2
Contraction scheme used                     ... SEGMENTED contraction
Coulomb Range Separation                    ... NOT USED
Exchange Range Separation                   ... NOT USED
Finite Nucleus Model                        ... NOT USED
Auxiliary Coulomb fitting basis             ... NOT available
Auxiliary J/K fitting basis                 ... NOT available
Auxiliary Correlation fitting basis         ... NOT available
Auxiliary 'external' fitting basis          ... NOT available
Integral threshold                          ...     1.000000e-10
Primitive cut-off                           ...     1.000000e-11
Primitive pair pre-selection threshold      ...     1.000000e-11

Calculating pre-screening integrals         ... done (  0.0 sec) Dimension = 7
Organizing shell pair data                  ... done (  0.0 sec)
Shell pair information
Total number of shell pairs                 ...        28
Shell pairs after pre-screening             ...        28
Total number of primitive shell pairs       ...       252
Primitive shell pairs kept                  ...       252
          la=0 lb=0:     21 shell pairs
          la=1 lb=0:      6 shell pairs
          la=1 lb=1:      1 shell pairs

Calculating one electron integrals          ... done (  0.0 sec)
Calculating Nuclear repulsion               ... done (  0.0 sec) ENN=     13.447486614167 Eh

SHARK setup successfully completed in   0.0 seconds

Maximum memory used throughout the entire GTOINT-calculation: 3.9 MB
-------------------------------------------------------------------------------
                                 ORCA SCF
-------------------------------------------------------------------------------

------------
SCF SETTINGS
------------
Hamiltonian:
 Ab initio Hamiltonian  Method          .... Hartree-Fock(GTOs)


General Settings:
 Integral files         IntName         .... methane
 Hartree-Fock type      HFTyp           .... RHF
 Total Charge           Charge          ....    0
 Multiplicity           Mult            ....    1
 Number of Electrons    NEL             ....   10
 Basis Dimension        Dim             ....    9
 Nuclear Repulsion      ENuc            ....     13.4474866142 Eh

Convergence Acceleration:
 DIIS                   CNVDIIS         .... on
   Start iteration      DIISMaxIt       ....    12
   Startup error        DIISStart       ....  0.200000
   # of expansion vecs  DIISMaxEq       ....     5
   Bias factor          DIISBfac        ....   1.050
   Max. coefficient     DIISMaxC        ....  10.000
 Trust-Rad. Augm. Hess. CNVTRAH         .... auto
   Auto Start mean grad. ratio tolernc. ....  1.125000
   Auto Start start iteration           ....    20
   Auto Start num. interpolation iter.  ....    10
   Max. Number of Micro iterations      ....    16
   Max. Number of Macro iterations      .... Maxiter - #DIIS iter
   Number of Davidson start vectors     ....     2
   Converg. threshold I  (grad. norm)   ....   5.000e-05
   Converg. threshold II (energy diff.) ....   1.000e-06
   Grad. Scal. Fac. for Micro threshold ....   0.100
   Minimum threshold for Micro iter.    ....   0.010
   NR start threshold (gradient norm)   ....   0.001
   Initial trust radius                 ....   0.400
   Minimum AH scaling param. (alpha)    ....   1.000
   Maximum AH scaling param. (alpha)    .... 1000.000
   Orbital update algorithm             .... Taylor
   White noise on init. David. guess    .... on
   Maximum white noise                  ....   0.010
   Quad. conv. algorithm                .... NR
 SOSCF                  CNVSOSCF        .... on
   Start iteration      SOSCFMaxIt      ....   150
   Startup grad/error   SOSCFStart      ....  0.003300
 Level Shifting         CNVShift        .... on
   Level shift para.    LevelShift      ....    0.2500
   Turn off err/grad.   ShiftErr        ....    0.0010
 Zerner damping         CNVZerner       .... off
 Static damping         CNVDamp         .... on
   Fraction old density DampFac         ....    0.7000
   Max. Damping (<1)    DampMax         ....    0.9800
   Min. Damping (>=0)   DampMin         ....    0.0000
   Turn off err/grad.   DampErr         ....    0.1000
 Fernandez-Rico         CNVRico         .... off

SCF Procedure:
 Maximum # iterations   MaxIter         ....   125
 SCF integral mode      SCFMode         .... Direct
   Integral package                     .... SHARK and LIBINT hybrid scheme
 Reset frequency        DirectResetFreq ....    20
 Integral Threshold     Thresh          ....  1.000e-10 Eh
 Primitive CutOff       TCut            ....  1.000e-11 Eh

Convergence Tolerance:
 Convergence Check Mode ConvCheckMode   .... Total+1el-Energy
 Convergence forced     ConvForced      .... 0
 Energy Change          TolE            ....  1.000e-06 Eh
 1-El. energy change                    ....  1.000e-03 Eh
 Orbital Gradient       TolG            ....  5.000e-05
 Orbital Rotation angle TolX            ....  5.000e-05
 DIIS Error             TolErr          ....  1.000e-06


Diagonalization of the overlap matrix:
Smallest eigenvalue                        ... 2.202e-01
Time for diagonalization                   ...    0.005 sec
Threshold for overlap eigenvalues          ... 1.000e-08
Number of eigenvalues below threshold      ... 0
Time for construction of square roots      ...    0.000 sec
Total time needed                          ...    0.005 sec

SHARK General Contraction Test:  Segmented basis detected
   -> Pre-screening matrix found on disk - Trying to read with NShells=7
   -> Passing Pre-screening matrix on to SHARK ...ok
   -> Leaving CheckPreScreeningMatrix
----------------------
SHARK INTEGRAL PACKAGE
----------------------

Number of atoms                             ...      5
Number of basis functions                   ...      9
Number of shells                            ...      7
Maximum angular momentum                    ...      1
Integral batch strategy                     ... SHARK/LIBINT Hybrid
RI-J (if used) integral strategy            ... SPLIT-RIJ (Revised 2003 algorithm where possible)
Printlevel                                  ...      2
Contraction scheme used                     ... SEGMENTED contraction
Coulomb Range Separation                    ... NOT USED
Exchange Range Separation                   ... NOT USED
Finite Nucleus Model                        ... NOT USED
Auxiliary Coulomb fitting basis             ... NOT available
Auxiliary J/K fitting basis                 ... NOT available
Auxiliary Correlation fitting basis         ... NOT available
Auxiliary 'external' fitting basis          ... NOT available
Integral threshold                          ...     1.000000e-10
Primitive cut-off                           ...     1.000000e-11
Primitive pair pre-selection threshold      ...     1.000000e-11

Time for model grid setup =    0.006 sec

------------------------------
INITIAL GUESS: MODEL POTENTIAL
------------------------------
Loading Hartree-Fock densities                     ... done
Calculating cut-offs                               ... done
Initializing the effective Hamiltonian             ... done
Setting up the integral package (SHARK)            ... done
Starting the Coulomb interaction                   ...     -> Generating integrals - 
    -> L=0 0 :     0.000 sec done=       651 skipped=         0 prim-skipped=         0
    -> L=1 0 :     0.000 sec done=       186 skipped=         0 prim-skipped=         0
    -> L=1 1 :     0.000 sec done=        31 skipped=         0 prim-skipped=         0
done (   0.0 sec)
Reading the grid                                   ... done
Mapping shells                                     ... done
Starting the XC term evaluation                    ... done (   0.0 sec)
Transforming the Hamiltonian                       ... done (   0.0 sec)
Diagonalizing the Hamiltonian                      ... done (   0.0 sec)
Back transforming the eigenvectors                 ... done (   0.0 sec)
Now organizing SCF variables                       ... done
                      ------------------
                      INITIAL GUESS DONE (   0.0 sec)
                      ------------------
--------------
SCF ITERATIONS
--------------
ITER       Energy         Delta-E        Max-DP      RMS-DP      [F,P]     Damp
               ***  Starting incremental Fock matrix formation  ***
===> SHARK/Fock/General/Sym: HFTyp=1 DoJ=1 DoX=1 facj= 2.000 facx=-0.500 NFock=1 NumOp=1 NMat=1 RangeSep=0 GeneralContraction=0 PGCOpt=-1
    -> L=0 0 0 0:     0.000 sec done=       231 (=100.0%) skipped=         0 
    -> L=1 0 0 0:     0.000 sec done=       126 (=100.0%) skipped=         0 
    -> L=1 0 1 0:     0.000 sec done=        21 (=100.0%) skipped=         0 
    -> L=1 1 0 0:     0.000 sec done=        21 (=100.0%) skipped=         0 
    -> L=1 1 1 0:     0.000 sec done=         6 (=100.0%) skipped=         0 
    -> L=1 1 1 1:     0.000 sec done=         1 (=100.0%) skipped=         0 
    -> RHF LowL loop time =     0.001 sec
    ->Total SHARK integral loop time =    0.000 sec
    ->Total LIBINT loop time =    0.000 sec
  0    -39.6739267596   0.000000000000 0.06241420  0.01599084  0.1284375 0.7000
===> SHARK/Fock/General/Sym: HFTyp=1 DoJ=1 DoX=1 facj= 2.000 facx=-0.500 NFock=1 NumOp=1 NMat=1 RangeSep=0 GeneralContraction=0 PGCOpt=-1
    -> L=0 0 0 0:     0.000 sec done=       231 (=100.0%) skipped=         0 
    -> L=1 0 0 0:     0.000 sec done=       126 (=100.0%) skipped=         0 
    -> L=1 0 1 0:     0.000 sec done=        21 (=100.0%) skipped=         0 
    -> L=1 1 0 0:     0.000 sec done=        21 (=100.0%) skipped=         0 
    -> L=1 1 1 0:     0.000 sec done=         6 (=100.0%) skipped=         0 
    -> L=1 1 1 1:     0.000 sec done=         1 (=100.0%) skipped=         0 
    -> RHF LowL loop time =     0.000 sec
    ->Total SHARK integral loop time =    0.000 sec
    ->Total LIBINT loop time =    0.000 sec
  1    -39.6912320855  -0.017305325936 0.04795079  0.01303945  0.0911548 0.7000
===> SHARK/Fock/General/Sym: HFTyp=1 DoJ=1 DoX=1 facj= 2.000 facx=-0.500 NFock=1 NumOp=1 NMat=1 RangeSep=0 GeneralContraction=0 PGCOpt=-1
    -> L=0 0 0 0:     0.000 sec done=       231 (=100.0%) skipped=         0 
    -> L=1 0 0 0:     0.000 sec done=       126 (=100.0%) skipped=         0 
    -> L=1 0 1 0:     0.000 sec done=        21 (=100.0%) skipped=         0 
    -> L=1 1 0 0:     0.000 sec done=        21 (=100.0%) skipped=         0 
    -> L=1 1 1 0:     0.000 sec done=         6 (=100.0%) skipped=         0 
    -> L=1 1 1 1:     0.000 sec done=         1 (=100.0%) skipped=         0 
    -> RHF LowL loop time =     0.000 sec
    ->Total SHARK integral loop time =    0.000 sec
    ->Total LIBINT loop time =    0.000 sec
                               ***Turning on DIIS***
  2    -39.7027161151  -0.011484029614 0.10389347  0.02951495  0.0604441 0.0000
===> SHARK/Fock/General/Sym: HFTyp=1 DoJ=1 DoX=1 facj= 2.000 facx=-0.500 NFock=1 NumOp=1 NMat=1 RangeSep=0 GeneralContraction=0 PGCOpt=-1
    -> L=0 0 0 0:     0.000 sec done=       231 (=100.0%) skipped=         0 
    -> L=1 0 0 0:     0.000 sec done=       126 (=100.0%) skipped=         0 
    -> L=1 0 1 0:     0.000 sec done=        21 (=100.0%) skipped=         0 
    -> L=1 1 0 0:     0.000 sec done=        21 (=100.0%) skipped=         0 
    -> L=1 1 1 0:     0.000 sec done=         6 (=100.0%) skipped=         0 
    -> L=1 1 1 1:     0.000 sec done=         1 (=100.0%) skipped=         0 
    -> RHF LowL loop time =     0.000 sec
    ->Total SHARK integral loop time =    0.000 sec
    ->Total LIBINT loop time =    0.000 sec
  3    -39.6927404259   0.009975689235 0.02170485  0.00416106  0.0094969 0.0000
===> SHARK/Fock/General/Sym: HFTyp=1 DoJ=1 DoX=1 facj= 2.000 facx=-0.500 NFock=1 NumOp=1 NMat=1 RangeSep=0 GeneralContraction=0 PGCOpt=-1
    -> L=0 0 0 0:     0.000 sec done=       231 (=100.0%) skipped=         0 
    -> L=1 0 0 0:     0.000 sec done=       126 (=100.0%) skipped=         0 
    -> L=1 0 1 0:     0.000 sec done=        21 (=100.0%) skipped=         0 
    -> L=1 1 0 0:     0.000 sec done=        21 (=100.0%) skipped=         0 
    -> L=1 1 1 0:     0.000 sec done=         6 (=100.0%) skipped=         0 
    -> L=1 1 1 1:     0.000 sec done=         1 (=100.0%) skipped=         0 
    -> RHF LowL loop time =     0.000 sec
    ->Total SHARK integral loop time =    0.000 sec
    ->Total LIBINT loop time =    0.000 sec
                      *** Initiating the SOSCF procedure ***
                           *** Shutting down DIIS ***
                      *** Re-Reading the Fockian *** 
                      *** Removing any level shift *** 
ITER      Energy       Delta-E        Grad      Rot      Max-DP    RMS-DP
  4    -39.72153691  -0.0287964793  0.001910  0.001910  0.004048  0.000559
               *** Restarting incremental Fock matrix formation ***
===> SHARK/Fock/General/Sym: HFTyp=1 DoJ=1 DoX=1 facj= 2.000 facx=-0.500 NFock=1 NumOp=1 NMat=1 RangeSep=0 GeneralContraction=0 PGCOpt=-1
    -> L=0 0 0 0:     0.000 sec done=       231 (=100.0%) skipped=         0 
    -> L=1 0 0 0:     0.000 sec done=       126 (=100.0%) skipped=         0 
    -> L=1 0 1 0:     0.000 sec done=        21 (=100.0%) skipped=         0 
    -> L=1 1 0 0:     0.000 sec done=        21 (=100.0%) skipped=         0 
    -> L=1 1 1 0:     0.000 sec done=         6 (=100.0%) skipped=         0 
    -> L=1 1 1 1:     0.000 sec done=         1 (=100.0%) skipped=         0 
    -> RHF LowL loop time =     0.000 sec
    ->Total SHARK integral loop time =    0.000 sec
    ->Total LIBINT loop time =    0.000 sec
  5    -39.72674227  -0.0052053606  0.000446  0.000269  0.001093  0.000136
===> SHARK/Fock/General/Sym: HFTyp=1 DoJ=1 DoX=1 facj= 2.000 facx=-0.500 NFock=1 NumOp=1 NMat=1 RangeSep=0 GeneralContraction=0 PGCOpt=-1
    -> L=0 0 0 0:     0.000 sec done=       231 (=100.0%) skipped=         0 
    -> L=1 0 0 0:     0.000 sec done=       126 (=100.0%) skipped=         0 
    -> L=1 0 1 0:     0.000 sec done=        21 (=100.0%) skipped=         0 
    -> L=1 1 0 0:     0.000 sec done=        21 (=100.0%) skipped=         0 
    -> L=1 1 1 0:     0.000 sec done=         6 (=100.0%) skipped=         0 
    -> L=1 1 1 1:     0.000 sec done=         1 (=100.0%) skipped=         0 
    -> RHF LowL loop time =     0.000 sec
    ->Total SHARK integral loop time =    0.000 sec
    ->Total LIBINT loop time =    0.000 sec
                 **** Energy Check signals convergence ****
              ***Rediagonalizing the Fockian in SOSCF/NRSCF***

               *****************************************************
               *                     SUCCESS                       *
               *           SCF CONVERGED AFTER   6 CYCLES          *
               *****************************************************


----------------
TOTAL SCF ENERGY
----------------

Total Energy       :          -39.72674254 Eh           -1081.01962 eV

Components:
Nuclear Repulsion  :           13.44748661 Eh             365.92471 eV
Electronic Energy  :          -53.17422915 Eh           -1446.94434 eV
One Electron Energy:          -79.36135166 Eh           -2159.53217 eV
Two Electron Energy:           26.18712251 Eh             712.58783 eV

Virial components:
Potential Energy   :          -79.17380563 Eh           -2154.42878 eV
Kinetic Energy     :           39.44706309 Eh            1073.40916 eV
Virial Ratio       :            2.00708999


---------------
SCF CONVERGENCE
---------------

  Last Energy change         ...   -2.7066e-07  Tolerance :   1.0000e-06
  Last MAX-Density change    ...    1.6022e-04  Tolerance :   1.0000e-05
  Last RMS-Density change    ...    2.9371e-05  Tolerance :   1.0000e-06
  Last Orbital Gradient      ...    4.5615e-05  Tolerance :   5.0000e-05
  Last Orbital Rotation      ...    3.9317e-05  Tolerance :   5.0000e-05

             **** THE GBW FILE WAS UPDATED (methane.gbw) ****
             **** DENSITY methane.scfp WAS UPDATED ****
             **** ENERGY FILE WAS UPDATED (methane.en.tmp) ****
             **** THE GBW FILE WAS UPDATED (methane.gbw) ****
             **** DENSITY methane.scfp WAS UPDATED ****
----------------
ORBITAL ENERGIES
----------------

  NO   OCC          E(Eh)            E(eV) 
   0   2.0000     -11.030140      -300.1454 
   1   2.0000      -0.908963       -24.7341 
   2   2.0000      -0.518120       -14.0988 
   3   2.0000      -0.518106       -14.0984 
   4   2.0000      -0.518097       -14.0981 
   5   0.0000       0.713874        19.4255 
   6   0.0000       0.713902        19.4263 
   7   0.0000       0.713939        19.4273 
   8   0.0000       0.751992        20.4628 

                    ********************************
                    * MULLIKEN POPULATION ANALYSIS *
                    ********************************

-----------------------
MULLIKEN ATOMIC CHARGES
-----------------------
   0 C :   -0.256046
   1 H :    0.064014
   2 H :    0.064018
   3 H :    0.064007
   4 H :    0.064007
Sum of atomic charges:   -0.0000000

--------------------------------
MULLIKEN REDUCED ORBITAL CHARGES
--------------------------------
  0 C s       :     3.182459  s :     3.182459
      pz      :     1.024533  p :     3.073587
      px      :     1.024531
      py      :     1.024523
  1 H s       :     0.935986  s :     0.935986
  2 H s       :     0.935982  s :     0.935982
  3 H s       :     0.935993  s :     0.935993
  4 H s       :     0.935993  s :     0.935993


                     *******************************
                     * LOEWDIN POPULATION ANALYSIS *
                     *******************************

----------------------
LOEWDIN ATOMIC CHARGES
----------------------
   0 C :   -0.139625
   1 H :    0.034907
   2 H :    0.034910
   3 H :    0.034904
   4 H :    0.034904

-------------------------------
LOEWDIN REDUCED ORBITAL CHARGES
-------------------------------
  0 C s       :     2.988938  s :     2.988938
      pz      :     1.050234  p :     3.150687
      px      :     1.050231
      py      :     1.050222
  1 H s       :     0.965093  s :     0.965093
  2 H s       :     0.965090  s :     0.965090
  3 H s       :     0.965096  s :     0.965096
  4 H s       :     0.965096  s :     0.965096


                      *****************************
                      * MAYER POPULATION ANALYSIS *
                      *****************************

  NA   - Mulliken gross atomic population
  ZA   - Total nuclear charge
  QA   - Mulliken gross atomic charge
  VA   - Mayer's total valence
  BVA  - Mayer's bonded valence
  FA   - Mayer's free valence

  ATOM       NA         ZA         QA         VA         BVA        FA
  0 C      6.2560     6.0000    -0.2560     3.9649     3.9649    -0.0000
  1 H      0.9360     1.0000     0.0640     0.9959     0.9959    -0.0000
  2 H      0.9360     1.0000     0.0640     0.9959     0.9959     0.0000
  3 H      0.9360     1.0000     0.0640     0.9959     0.9959    -0.0000
  4 H      0.9360     1.0000     0.0640     0.9959     0.9959    -0.0000

  Mayer bond orders larger than 0.100000
B(  0-C ,  1-H ) :   0.9912 B(  0-C ,  2-H ) :   0.9912 B(  0-C ,  3-H ) :   0.9912 
B(  0-C ,  4-H ) :   0.9912 

-------
TIMINGS
-------

Total SCF time: 0 days 0 hours 0 min 0 sec 

Total time                  ....       0.081 sec
Sum of individual times     ....       0.020 sec  ( 24.8%)

Fock matrix formation       ....       0.005 sec  (  6.7%)
Diagonalization             ....       0.000 sec  (  0.1%)
Density matrix formation    ....       0.000 sec  (  0.0%)
Population analysis         ....       0.001 sec  (  1.1%)
Initial guess               ....       0.006 sec  (  7.2%)
Orbital Transformation      ....       0.000 sec  (  0.0%)
Orbital Orthonormalization  ....       0.000 sec  (  0.0%)
DIIS solution               ....       0.001 sec  (  1.5%)
SOSCF solution              ....       0.001 sec  (  0.7%)

Maximum memory used throughout the entire SCF-calculation: 223.6 MB

-------------------------   --------------------
FINAL SINGLE POINT ENERGY       -39.726742536495
-------------------------   --------------------


                            ***************************************
                            *     ORCA property calculations      *
                            ***************************************

                                    ---------------------
                                    Active property flags
                                    ---------------------
   (+) Dipole Moment


------------------------------------------------------------------------------
                       ORCA ELECTRIC PROPERTIES CALCULATION
------------------------------------------------------------------------------

Dipole Moment Calculation                       ... on
Quadrupole Moment Calculation                   ... off
Polarizability Calculation                      ... off
GBWName                                         ... methane.gbw
Electron density                                ... methane.scfp
SHARK General Contraction Test:  Segmented basis detected
   -> Pre-screening matrix found on disk - Trying to read with NShells=7
   -> Passing Pre-screening matrix on to SHARK ...ok
   -> Leaving CheckPreScreeningMatrix
----------------------
SHARK INTEGRAL PACKAGE
----------------------

Number of atoms                             ...      5
Number of basis functions                   ...      9
Number of shells                            ...      7
Maximum angular momentum                    ...      1
Integral batch strategy                     ... SHARK/LIBINT Hybrid
RI-J (if used) integral strategy            ... SPLIT-RIJ (Revised 2003 algorithm where possible)
Printlevel                                  ...      2
Contraction scheme used                     ... SEGMENTED contraction
Coulomb Range Separation                    ... NOT USED
Exchange Range Separation                   ... NOT USED
Finite Nucleus Model                        ... NOT USED
Auxiliary Coulomb fitting basis             ... NOT available
Auxiliary J/K fitting basis                 ... NOT available
Auxiliary Correlation fitting basis         ... NOT available
Auxiliary 'external' fitting basis          ... NOT available
Integral threshold                          ...     1.000000e-10
Primitive cut-off                           ...     1.000000e-11
Primitive pair pre-selection threshold      ...     1.000000e-11

The origin for moment calculation is the CENTER OF MASS  = (-0.000012,  0.000000  0.000000)

-------------
DIPOLE MOMENT
-------------
                                X             Y             Z
Electronic contribution:      0.00007       0.00000       0.00000
Nuclear contribution   :     -0.00007       0.00000      -0.00000
                        -----------------------------------------
Total Dipole Moment    :      0.00000       0.00000       0.00000
                        -----------------------------------------
Magnitude (a.u.)       :      0.00000
Magnitude (Debye)      :      0.00001



--------------------
Rotational spectrum 
--------------------
 
Rotational constants in cm-1:     5.288175     5.288073     5.287932 
Rotational constants in MHz : 158535.503542 158532.454377 158528.198760 

 Dipole components along the rotational axes: 
x,y,z [a.u.] :     0.000000    -0.000002     0.000003 
x,y,z [Debye]:     0.000000    -0.000005     0.000008 

 

Timings for individual modules:

Sum of individual times         ...        0.238 sec (=   0.004 min)
GTO integral calculation        ...        0.076 sec (=   0.001 min)  32.2 %
SCF iterations                  ...        0.161 sec (=   0.003 min)  67.8 %
                             ****ORCA TERMINATED NORMALLY****
TOTAL RUN TIME: 0 days 0 hours 0 minutes 0 seconds 308 msec
